GFORTRAN module version '10' created from /pool1/home/wuxun/software/OpenMolcas-v21.06/src/system_util/Para_Info.f90
MD5:75335f7d5ff16d98931904f0b289eaf3 -- If you edit this, you'll get what you deserve.

(() () () () () () () () () () () () () () () () () () () () () () () ()
() () ())

()

()

()

()

()

(2 'is_real_par' 'para_info' '' 1 ((PROCEDURE UNKNOWN-INTENT MODULE-PROC
DECL UNKNOWN 0 0 FUNCTION IMPLICIT_PURE) (LOGICAL 4 0 0 0 LOGICAL ()) 0
0 () () 2 () () () 0 0)
3 'king' 'para_info' '' 1 ((PROCEDURE UNKNOWN-INTENT MODULE-PROC DECL
UNKNOWN 0 0 FUNCTION IMPLICIT_PURE) (LOGICAL 4 0 0 0 LOGICAL ()) 0 0 ()
() 3 () () () 0 0)
4 'mpp_id' 'para_info' '' 1 ((PROCEDURE UNKNOWN-INTENT MODULE-PROC DECL
UNKNOWN 0 0 FUNCTION IMPLICIT_PURE) (INTEGER 4 0 0 0 INTEGER ()) 0 0 ()
() 4 () () () 0 0)
5 'mpp_rootid' 'para_info' '' 1 ((PARAMETER UNKNOWN-INTENT UNKNOWN-PROC
UNKNOWN IMPLICIT-SAVE 0 0) (INTEGER 4 0 0 0 INTEGER ()) 0 0 () (
CONSTANT (INTEGER 4 0 0 0 INTEGER ()) 0 '0') () 0 () () () 0 0)
6 'myrank' 'para_info' '' 1 ((VARIABLE UNKNOWN-INTENT UNKNOWN-PROC
UNKNOWN IMPLICIT-SAVE 0 0) (INTEGER 4 0 0 0 INTEGER ()) 0 0 () () 0 () ()
() 0 0)
7 'nprocs' 'para_info' '' 1 ((VARIABLE UNKNOWN-INTENT UNKNOWN-PROC
UNKNOWN IMPLICIT-SAVE 0 0) (INTEGER 4 0 0 0 INTEGER ()) 0 0 () () 0 () ()
() 0 0)
8 'set_do_parallel' 'para_info' '' 1 ((PROCEDURE UNKNOWN-INTENT
MODULE-PROC DECL UNKNOWN 0 0 SUBROUTINE) (UNKNOWN 0 0 0 0 UNKNOWN ()) 9
0 (10) () 0 () () () 0 0)
10 'par_status' '' '' 9 ((VARIABLE IN UNKNOWN-PROC UNKNOWN UNKNOWN 0 0
DUMMY) (LOGICAL 4 0 0 0 LOGICAL ()) 0 0 () () 0 () () () 0 0)
)

('is_real_par' 0 2 'king' 0 3 'mpp_id' 0 4 'mpp_rootid' 0 5 'myrank' 0 6
'nprocs' 0 7 'set_do_parallel' 0 8)
